96
# CELL(abcABC):   13.49113    27.05389    18.12247    90.00000   107.33000    90.00000  Step:           0  Bead:       0 positions{atomic_unit}  cell{atomic_unit}
       N -7.06589e-01  1.31333e+01  1.16481e+01
       N -2.73492e-01  2.66225e+01  1.43173e+01
       N  9.04073e+00  1.39210e+01  5.65559e+00
       N  8.72197e+00  4.00907e-01  3.08078e+00
       O -2.09344e+00  1.18818e+01  1.30861e+01
       O  1.07893e+00  2.52936e+01  1.28337e+01
       O  1.05372e+01  1.51253e+01  4.14349e+00
       O  7.49624e+00  1.87546e+00  4.69142e+00
       O -3.02468e-01  1.54797e+01  1.20657e+01
       O -9.85721e-01  1.77821e+00  1.35570e+01
       O  8.58597e+00  1.15632e+01  5.20754e+00
       O  9.21842e+00  2.51908e+01  3.66170e+00
       O  8.73499e-02  1.22767e+01  9.47565e+00
       O -9.62713e-01  2.58010e+01  1.65104e+01
       O  8.04258e+00  1.50751e+01  7.53118e+00
       O  9.24675e+00  1.26934e+00  9.09663e-01
       N  5.64807e+00  1.06979e+01  9.90834e+00
       N  6.60951e+00  2.40953e+01  1.60862e+01
       N  2.43748e+00  1.62221e+01  7.41394e+00
       N  1.82535e+00  2.98382e+00  1.32086e+00
       H  6.90393e+00  1.20518e+01  9.11545e+00
       H  5.40917e+00  2.53974e+01  1.69027e+01
       H  1.49320e+00  1.45146e+01  8.26107e+00
       H  2.61056e+00  1.41276e+00  3.12570e-01
       N  5.13234e+00  8.51730e+00  8.64550e+00
       N  6.98600e+00  2.18677e+01  1.72933e+01
       N  2.88920e+00  1.84154e+01  8.72012e+00
       N  1.35607e+00  5.21425e+00  1.32216e-01
       N  3.88085e+00  6.95070e+00  1.00560e+01
       N  8.20470e+00  2.03756e+01  1.59293e+01
       N  4.10662e+00  2.00424e+01  7.26620e+00
       N  6.44344e-02  6.73922e+00  1.57712e+00
       C  2.51870e+00  7.27276e+00  1.46685e+01
       C  9.22931e+00  2.05241e+01  1.12155e+01
       C  5.79536e+00  1.98387e+01  2.88187e+00
       C -1.78087e+00  6.26301e+00  5.93412e+00
       H  1.73037e+00  5.34798e+00  1.48939e+01
       H  1.00817e+01  1.86075e+01  1.09105e+01
       H  6.71480e+00  2.17069e+01  2.59478e+00
       H  1.09980e+01  8.23643e+00  6.25446e+00
       N  2.80192e+00  8.76912e+00  1.67161e+01
       N  9.06919e+00  2.21166e+01  9.25902e+00
       N  5.66430e+00  1.83358e+01  8.08850e-01
       N -1.84085e+00  4.54991e+00  7.76762e+00
       H  7.68725e+00  7.87199e+00  1.13032e+00
       H  9.93654e+00  2.13943e+01  7.60860e+00
       H  8.81208e-01  1.91031e+01  1.64273e+01
       H -2.77746e+00  5.27073e+00  9.41815e+00
       C  3.82428e+00  1.12099e+01  1.66701e+01
       C  8.25047e+00  2.46381e+01  9.40014e+00
       C  4.54322e+00  1.60742e+01  6.44612e-01
       C -7.00026e-01  2.17929e+00  7.78631e+00
       H  9.38684e+00  1.22201e+01  1.22215e+00
       H  8.42330e+00  2.56610e+01  7.62030e+00
       H -8.48927e-01  1.54463e+01  1.60442e+01
       H -8.72887e-01  1.12414e+00  9.55459e+00
       C  4.73877e+00  1.21621e+01  1.44645e+01
       C  7.23136e+00  2.55986e+01  1.16051e+01
       C  3.29670e+00  1.49971e+01  2.70558e+00
       C  5.87293e-01  1.27316e+00  5.66837e+00
       C  5.79218e+00  1.48019e+01  1.42267e+01
       C  6.10295e+00  1.09471e+00  1.17337e+01
       C  2.05415e+00  1.25689e+01  2.47796e+00
       C  2.12785e+00  2.60179e+01  5.81741e+00
       H  5.17571e+00  1.62586e+01  1.55966e+01
       H  6.43484e+00  2.25669e+00  1.00082e+01
       H  1.76976e+00  1.21940e+01  5.12021e-01
       H  2.01785e+00  2.50073e+01  7.58997e+00
       H  4.91871e+00  1.55128e+01  1.23332e+01
       H  6.74109e+00  2.04410e+00  1.34070e+01
       H  3.39308e+00  1.09587e+01  3.09125e+00
       H  1.56097e+00  2.47460e+01  4.35931e+00
       H  7.89633e+00  1.49876e+01  1.41212e+01
       H  4.00684e+00  8.30850e-01  1.20841e+01
       H  4.39722e-01  1.24918e+01  3.72108e+00
       H  4.14869e+00  2.62891e+01  5.19918e+00
       C  3.63821e+00  8.02835e+00  1.24057e+01
       C  8.36920e+00  2.14223e+01  1.35042e+01
       C  4.63856e+00  1.89216e+01  5.04054e+00
       C -4.07578e-01  5.49888e+00  3.85731e+00
       C  4.74510e+00  1.04352e+01  1.23309e+01
       C  7.40045e+00  2.39360e+01  1.36430e+01
       C  3.47948e+00  1.64524e+01  4.96473e+00
       C  6.93860e-01  3.10431e+00  3.64487e+00
       O  5.80274e+00  6.95056e+00  3.48719e+00
       O  1.07526e+01  2.03482e+01  5.05570e+00
       O  2.21735e+00  2.04015e+01  1.39133e+01
       O -3.73973e+00  6.83578e+00  1.20789e+01
       H  5.92389e+00  7.90826e+00  5.01658e+00
       H  1.12998e+01  2.07675e+01  3.32027e+00
       H  1.72980e+00  1.96719e+01  1.23879e+01
       H -3.41833e+00  5.80839e+00  1.36165e+01
       H  6.27916e+00  5.11829e+00  3.92181e+00
       H  1.06215e+01  1.84468e+01  4.95892e+00
       H  1.73944e+00  2.21691e+01  1.37341e+01
       H -3.36213e+00  8.65111e+00  1.24047e+01
96
# CELL(abcABC):   13.49113    27.05389    18.12247    90.00000   107.33000    90.00000  Step:           1  Bead:       0 positions{atomic_unit}  cell{atomic_unit}
       N -7.04555e-01  1.31368e+01  1.16451e+01
       N -2.72686e-01  2.66230e+01  1.43160e+01
       N  9.04020e+00  1.39209e+01  5.65796e+00
       N  8.72528e+00  4.00599e-01  3.07957e+00
       O -2.09549e+00  1.18824e+01  1.30873e+01
       O  1.07830e+00  2.52929e+01  1.28334e+01
       O  1.05404e+01  1.51222e+01  4.14118e+00
       O  7.49299e+00  1.87840e+00  4.69266e+00
       O -3.04206e-01  1.54795e+01  1.20693e+01
       O -9.87579e-01  1.77767e+00  1.35602e+01
       O  8.58393e+00  1.15611e+01  5.20691e+00
       O  9.21581e+00  2.51918e+01  3.66361e+00
       O  8.66915e-02  1.22773e+01  9.47558e+00
       O -9.63846e-01  2.58022e+01  1.65099e+01
       O  8.04641e+00  1.50755e+01  7.53364e+00
       O  9.24578e+00  1.26925e+00  9.13460e-01
       N  5.64739e+00  1.06982e+01  9.90522e+00
       N  6.61054e+00  2.40940e+01  1.60839e+01
       N  2.43746e+00  1.62208e+01  7.41547e+00
       N  1.82257e+00  2.98258e+00  1.31687e+00
       H  6.89704e+00  1.20567e+01  9.11558e+00
       H  5.39876e+00  2.53977e+01  1.68996e+01
       H  1.49327e+00  1.45343e+01  8.25064e+00
       H  2.61843e+00  1.40398e+00  3.08991e-01
       N  5.13294e+00  8.51602e+00  8.64797e+00
       N  6.98629e+00  2.18713e+01  1.72920e+01
       N  2.89042e+00  1.84167e+01  8.71848e+00
       N  1.35291e+00  5.21372e+00  1.30942e-01
       N  3.87825e+00  6.94963e+00  1.00573e+01
       N  8.20783e+00  2.03766e+01  1.59270e+01
       N  4.10224e+00  2.00439e+01  7.26455e+00
       N  6.67722e-02  6.73854e+00  1.57576e+00
       C  2.52071e+00  7.27135e+00  1.46678e+01
       C  9.23303e+00  2.05258e+01  1.12147e+01
       C  5.79786e+00  1.98347e+01  2.88166e+00
       C -1.78316e+00  6.26265e+00  5.93737e+00
       H  1.73684e+00  5.36378e+00  1.49026e+01
       H  1.00918e+01  1.86067e+01  1.09170e+01
       H  6.70713e+00  2.17076e+01  2.58761e+00
       H  1.09852e+01  8.24416e+00  6.24506e+00
       N  2.80607e+00  8.76742e+00  1.67176e+01
       N  9.07034e+00  2.21165e+01  9.25672e+00
       N  5.66507e+00  1.83344e+01  8.08291e-01
       N -1.84430e+00  4.55028e+00  7.76480e+00
       H  7.69230e+00  7.85516e+00  1.12697e+00
       H  9.94331e+00  2.13879e+01  7.61534e+00
       H  8.81112e-01  1.91177e+01  1.64149e+01
       H -2.77538e+00  5.26204e+00  9.41830e+00
       C  3.82197e+00  1.12082e+01  1.66738e+01
       C  8.25315e+00  2.46377e+01  9.39980e+00
       C  4.54456e+00  1.60734e+01  6.42615e-01
       C -7.02254e-01  2.17802e+00  7.78654e+00
       H  9.38953e+00  1.22184e+01  1.22173e+00
       H  8.41754e+00  2.56552e+01  7.62826e+00
       H -8.35439e-01  1.54499e+01  1.60495e+01
       H -8.82700e-01  1.11779e+00  9.55182e+00
       C  4.74234e+00  1.21620e+01  1.44631e+01
       C  7.23746e+00  2.55969e+01  1.16046e+01
       C  3.29806e+00  1.49966e+01  2.70587e+00
       C  5.86558e-01  1.27102e+00  5.66462e+00
       C  5.79239e+00  1.47995e+01  1.42305e+01
       C  6.10511e+00  1.09380e+00  1.17361e+01
       C  2.05527e+00  1.25674e+01  2.47749e+00
       C  2.12666e+00  2.60199e+01  5.81684e+00
       H  5.17871e+00  1.62548e+01  1.55901e+01
       H  6.43873e+00  2.27686e+00  1.00228e+01
       H  1.76849e+00  1.21989e+01  5.16422e-01
       H  2.02192e+00  2.49971e+01  7.58062e+00
       H  4.92212e+00  1.55151e+01  1.23432e+01
       H  6.73737e+00  2.05466e+00  1.34163e+01
       H  3.39758e+00  1.09718e+01  3.08763e+00
       H  1.54665e+00  2.47409e+01  4.35760e+00
       H  7.89292e+00  1.49802e+01  1.41215e+01
       H  4.01727e+00  8.31038e-01  1.20887e+01
       H  4.26293e-01  1.25045e+01  3.73764e+00
       H  4.14769e+00  2.63002e+01  5.19990e+00
       C  3.63862e+00  8.02801e+00  1.24040e+01
       C  8.36853e+00  2.14260e+01  1.35049e+01
       C  4.63729e+00  1.89184e+01  5.04381e+00
       C -4.07361e-01  5.49751e+00  3.85879e+00
       C  4.74801e+00  1.04373e+01  1.23309e+01
       C  7.39698e+00  2.39371e+01  1.36439e+01
       C  3.48076e+00  1.64570e+01  4.96833e+00
       C  6.95787e-01  3.10073e+00  3.64913e+00
       O  5.80326e+00  6.94928e+00  3.48587e+00
       O  1.07531e+01  2.03492e+01  5.05339e+00
       O  2.21679e+00  2.03992e+01  1.39104e+01
       O -3.73958e+00  6.83318e+00  1.20757e+01
       H  5.91135e+00  7.91495e+00  5.02242e+00
       H  1.13030e+01  2.07816e+01  3.32413e+00
       H  1.72202e+00  1.96654e+01  1.23696e+01
       H -3.42236e+00  5.79437e+00  1.36220e+01
       H  6.28710e+00  5.11824e+00  3.91776e+00
       H  1.06215e+01  1.84476e+01  4.94203e+00
       H  1.73288e+00  2.21649e+01  1.37472e+01
       H -3.37025e+00  8.64304e+00  1.24190e+01
96
# CELL(abcABC):   13.49113    27.05389    18.12247    90.00000   107.33000    90.00000  Step:           2  Bead:       0 positions{atomic_unit}  cell{atomic_unit}
       N -7.02308e-01  1.31416e+01  1.16410e+01
       N -2.71648e-01  2.66233e+01  1.43152e+01
       N  9.04072e+00  1.39210e+01  5.66013e+00
       N  8.72730e+00  3.99675e-01  3.07956e+00
       O -2.09738e+00  1.18831e+01  1.30889e+01
       O  1.07746e+00  2.52922e+01  1.28338e+01
       O  1.05437e+01  1.51191e+01  4.13885e+00
       O  7.48999e+00  1.88123e+00  4.69400e+00
       O -3.04497e-01  1.54788e+01  1.20730e+01
       O -9.89277e-01  1.77644e+00  1.35635e+01
       O  8.58271e+00  1.15605e+01  5.20633e+00
       O  9.21375e+00  2.51919e+01  3.66676e+00
       O  8.59135e-02  1.22781e+01  9.47588e+00
       O -9.65273e-01  2.58023e+01  1.65088e+01
       O  8.05065e+00  1.50756e+01  7.53604e+00
       O  9.24475e+00  1.26929e+00  9.17003e-01
       N  5.64706e+00  1.06992e+01  9.90250e+00
       N  6.61129e+00  2.40914e+01  1.60817e+01
       N  2.43781e+00  1.62181e+01  7.41708e+00
       N  1.81977e+00  2.98229e+00  1.31316e+00
       H  6.88373e+00  1.20613e+01  9.11857e+00
       H  5.38867e+00  2.53986e+01  1.69001e+01
       H  1.48906e+00  1.45604e+01  8.23672e+00
       H  2.62597e+00  1.40061e+00  3.11233e-01
       N  5.13312e+00  8.51581e+00  8.65008e+00
       N  6.98705e+00  2.18760e+01  1.72915e+01
       N  2.89105e+00  1.84174e+01  8.71632e+00
       N  1.35010e+00  5.21239e+00  1.30446e-01
       N  3.87527e+00  6.94727e+00  1.00574e+01
       N  8.21088e+00  2.03761e+01  1.59248e+01
       N  4.09756e+00  2.00468e+01  7.26350e+00
       N  6.89253e-02  6.73806e+00  1.57335e+00
       C  2.52448e+00  7.27001e+00  1.46673e+01
       C  9.23672e+00  2.05267e+01  1.12131e+01
       C  5.79901e+00  1.98301e+01  2.88256e+00
       C -1.78698e+00  6.26307e+00  5.94056e+00
       H  1.74660e+00  5.38602e+00  1.49127e+01
       H  1.01021e+01  1.86090e+01  1.09274e+01
       H  6.69213e+00  2.17034e+01  2.57995e+00
       H  1.09773e+01  8.24213e+00  6.23306e+00
       N  2.81130e+00  8.76592e+00  1.67190e+01
       N  9.07248e+00  2.21164e+01  9.25464e+00
       N  5.66575e+00  1.83340e+01  8.07339e-01
       N -1.84720e+00  4.55104e+00  7.76367e+00
       H  7.69526e+00  7.84562e+00  1.12067e+00
       H  9.94013e+00  2.13801e+01  7.62323e+00
       H  8.81246e-01  1.91335e+01  1.63964e+01
       H -2.77270e+00  5.25084e+00  9.41929e+00
       C  3.82006e+00  1.12077e+01  1.66789e+01
       C  8.25759e+00  2.46366e+01  9.39882e+00
       C  4.54729e+00  1.60739e+01  6.41189e-01
       C -7.04084e-01  2.17579e+00  7.78731e+00
       H  9.39056e+00  1.22140e+01  1.21925e+00
       H  8.40654e+00  2.56512e+01  7.63843e+00
       H -8.22876e-01  1.54550e+01  1.60477e+01
       H -9.00474e-01  1.11087e+00  9.54841e+00
       C  4.74639e+00  1.21611e+01  1.44609e+01
       C  7.24460e+00  2.55953e+01  1.16029e+01
       C  3.29969e+00  1.49957e+01  2.70487e+00
       C  5.86435e-01  1.26997e+00  5.66160e+00
       C  5.79253e+00  1.47974e+01  1.42350e+01
       C  6.10579e+00  1.09238e+00  1.17385e+01
       C  2.05812e+00  1.25660e+01  2.47930e+00
       C  2.12707e+00  2.60225e+01  5.81472e+00
       H  5.18064e+00  1.62515e+01  1.55852e+01
       H  6.43996e+00  2.29409e+00  1.00395e+01
       H  1.76436e+00  1.22035e+01  5.18152e-01
       H  2.02540e+00  2.49935e+01  7.56929e+00
       H  4.93056e+00  1.55209e+01  1.23528e+01
       H  6.73241e+00  2.06589e+00  1.34262e+01
       H  3.39430e+00  1.09957e+01  3.08376e+00
       H  1.53183e+00  2.47332e+01  4.35521e+00
       H  7.88894e+00  1.49691e+01  1.41204e+01
       H  4.03129e+00  8.35296e-01  1.20895e+01
       H  4.12077e-01  1.25123e+01  3.75911e+00
       H  4.14009e+00  2.63118e+01  5.20235e+00
       C  3.63868e+00  8.02728e+00  1.24029e+01
       C  8.36739e+00  2.14299e+01  1.35044e+01
       C  4.63518e+00  1.89145e+01  5.04627e+00
       C -4.06567e-01  5.49772e+00  3.86158e+00
       C  4.74992e+00  1.04390e+01  1.23313e+01
       C  7.39374e+00  2.39372e+01  1.36440e+01
       C  3.48028e+00  1.64616e+01  4.97213e+00
       C  6.97971e-01  3.09712e+00  3.65387e+00
       O  5.80260e+00  6.94754e+00  3.48491e+00
       O  1.07539e+01  2.03502e+01  5.05076e+00
       O  2.21565e+00  2.03975e+01  1.39069e+01
       O -3.74010e+00  6.83044e+00  1.20722e+01
       H  5.89904e+00  7.92609e+00  5.02969e+00
       H  1.13072e+01  2.07930e+01  3.32988e+00
       H  1.70954e+00  1.96466e+01  1.23383e+01
       H -3.42359e+00  5.78457e+00  1.36252e+01
       H  6.29399e+00  5.12138e+00  3.91076e+00
       H  1.06195e+01  1.84499e+01  4.92805e+00
       H  1.72750e+00  2.21709e+01  1.37655e+01
       H -3.37550e+00  8.63455e+00  1.24301e+01
96
# CELL(abcABC):   13.49113    27.05389    18.12247    90.00000   107.33000    90.00000  Step:           3  Bead:       0 positions{atomic_unit}  cell{atomic_unit}
       N -7.01271e-01  1.31464e+01  1.16351e+01
       N -2.71571e-01  2.66244e+01  1.43146e+01
       N  9.04184e+00  1.39215e+01  5.66212e+00
       N  8.72858e+00  3.99300e-01  3.08108e+00
       O -2.09996e+00  1.18839e+01  1.30901e+01
       O  1.07709e+00  2.52925e+01  1.28356e+01
       O  1.05470e+01  1.51160e+01  4.13736e+00
       O  7.48846e+00  1.88380e+00  4.69408e+00
       O -3.04623e-01  1.54774e+01  1.20767e+01
       O -9.90319e-01  1.77597e+00  1.35665e+01
       O  8.58175e+00  1.15596e+01  5.20590e+00
       O  9.21067e+00  2.51913e+01  3.67100e+00
       O  8.46666e-02  1.22793e+01  9.47578e+00
       O -9.65452e-01  2.58034e+01  1.65074e+01
       O  8.05442e+00  1.50765e+01  7.53741e+00
       O  9.24537e+00  1.27029e+00  9.21526e-01
       N  5.64631e+00  1.07017e+01  9.89958e+00
       N  6.61119e+00  2.40892e+01  1.60795e+01
       N  2.43821e+00  1.62159e+01  7.41904e+00
       N  1.81557e+00  2.98253e+00  1.30913e+00
       H  6.86793e+00  1.20611e+01  9.11852e+00
       H  5.38281e+00  2.53979e+01  1.69025e+01
       H  1.48397e+00  1.45897e+01  8.22081e+00
       H  2.63193e+00  1.40486e+00  3.20309e-01
       N  5.13309e+00  8.51586e+00  8.65110e+00
       N  6.98718e+00  2.18817e+01  1.72917e+01
       N  2.89312e+00  1.84177e+01  8.71307e+00
       N  1.34737e+00  5.21031e+00  1.30468e-01
       N  3.87258e+00  6.94502e+00  1.00580e+01
       N  8.21413e+00  2.03751e+01  1.59217e+01
       N  4.09302e+00  2.00496e+01  7.26346e+00
       N  6.97948e-02  6.73699e+00  1.57120e+00
       C  2.52728e+00  7.26825e+00  1.46681e+01
       C  9.24211e+00  2.05283e+01  1.12112e+01
       C  5.80114e+00  1.98261e+01  2.88331e+00
       C -1.78993e+00  6.26287e+00  5.94238e+00
       H  1.75661e+00  5.40398e+00  1.49214e+01
       H  1.01088e+01  1.86138e+01  1.09380e+01
       H  6.66873e+00  2.16985e+01  2.57545e+00
       H  1.09688e+01  8.23399e+00  6.21614e+00
       N  2.81545e+00  8.76381e+00  1.67201e+01
       N  9.07423e+00  2.21168e+01  9.25278e+00
       N  5.66534e+00  1.83356e+01  8.06386e-01
       N -1.85125e+00  4.55117e+00  7.76241e+00
       H  7.69236e+00  7.83867e+00  1.11358e+00
       H  9.93562e+00  2.13773e+01  7.63087e+00
       H  8.84862e-01  1.91483e+01  1.63818e+01
       H -2.77005e+00  5.23697e+00  9.41640e+00
       C  3.81831e+00  1.12068e+01  1.66843e+01
       C  8.26074e+00  2.46343e+01  9.39885e+00
       C  4.54951e+00  1.60735e+01  6.42094e-01
       C -7.05754e-01  2.17423e+00  7.78739e+00
       H  9.39491e+00  1.22031e+01  1.21384e+00
       H  8.38789e+00  2.56535e+01  7.64382e+00
       H -8.09983e-01  1.54567e+01  1.60417e+01
       H -9.14477e-01  1.10438e+00  9.54386e+00
       C  4.75157e+00  1.21611e+01  1.44596e+01
       C  7.25241e+00  2.55926e+01  1.15997e+01
       C  3.30117e+00  1.49948e+01  2.70449e+00
       C  5.85214e-01  1.26957e+00  5.65852e+00
       C  5.79219e+00  1.47952e+01  1.42385e+01
       C  6.10595e+00  1.09090e+00  1.17404e+01
       C  2.06225e+00  1.25643e+01  2.48195e+00
       C  2.13034e+00  2.60246e+01  5.81158e+00
       H  5.18504e+00  1.62488e+01  1.55816e+01
       H  6.44160e+00  2.30568e+00  1.00556e+01
       H  1.76446e+00  1.22093e+01  5.20376e-01
       H  2.02412e+00  2.49878e+01  7.56380e+00
       H  4.94674e+00  1.55232e+01  1.23603e+01
       H  6.72772e+00  2.08261e+00  1.34377e+01
       H  3.38966e+00  1.10204e+01  3.08132e+00
       H  1.51384e+00  2.47177e+01  4.34643e+00
       H  7.88490e+00  1.49579e+01  1.41159e+01
       H  4.04639e+00  8.40170e-01  1.20903e+01
       H  3.96039e-01  1.25182e+01  3.77476e+00
       H  4.12424e+00  2.63266e+01  5.20856e+00
       C  3.63880e+00  8.02737e+00  1.24030e+01
       C  8.36615e+00  2.14336e+01  1.35034e+01
       C  4.63193e+00  1.89100e+01  5.04947e+00
       C -4.04993e-01  5.49845e+00  3.86353e+00
       C  4.75134e+00  1.04402e+01  1.23318e+01
       C  7.39110e+00  2.39369e+01  1.36452e+01
       C  3.47903e+00  1.64662e+01  4.97717e+00
       C  6.99754e-01  3.09295e+00  3.65886e+00
       O  5.80248e+00  6.94557e+00  3.48434e+00
       O  1.07546e+01  2.03503e+01  5.04841e+00
       O  2.21376e+00  2.03965e+01  1.39050e+01
       O -3.74290e+00  6.82711e+00  1.20686e+01
       H  5.88973e+00  7.93769e+00  5.03911e+00
       H  1.13138e+01  2.08063e+01  3.33633e+00
       H  1.69666e+00  1.96245e+01  1.22980e+01
       H -3.42425e+00  5.78148e+00  1.36249e+01
       H  6.29491e+00  5.12319e+00  3.90278e+00
       H  1.06146e+01  1.84552e+01  4.91308e+00
       H  1.72415e+00  2.21774e+01  1.37861e+01
       H -3.37532e+00  8.62632e+00  1.24441e+01
96
# CELL(abcABC):   13.49113    27.05389    18.12247    90.00000   107.33000    90.00000  Step:           4  Bead:       0 positions{atomic_unit}  cell{atomic_unit}
       N -7.00179e-01  1.31518e+01  1.16296e+01
       N -2.71416e-01  2.66264e+01  1.43142e+01
       N  9.04200e+00  1.39216e+01  5.66394e+00
       N  8.72900e+00  3.98967e-01  3.08214e+00
       O -2.10168e+00  1.18830e+01  1.30921e+01
       O  1.07616e+00  2.52926e+01  1.28373e+01
       O  1.05498e+01  1.51126e+01  4.13569e+00
       O  7.48695e+00  1.88726e+00  4.69356e+00
       O -3.04288e-01  1.54757e+01  1.20813e+01
       O -9.92749e-01  1.77531e+00  1.35687e+01
       O  8.57983e+00  1.15601e+01  5.20563e+00
       O  9.20825e+00  2.51910e+01  3.67409e+00
       O  8.31135e-02  1.22808e+01  9.47561e+00
       O -9.66482e-01  2.58042e+01  1.65071e+01
       O  8.05863e+00  1.50763e+01  7.53784e+00
       O  9.24608e+00  1.27123e+00  9.26259e-01
       N  5.64519e+00  1.07040e+01  9.89822e+00
       N  6.61251e+00  2.40876e+01  1.60769e+01
       N  2.44006e+00  1.62131e+01  7.42117e+00
       N  1.81238e+00  2.98261e+00  1.30519e+00
       H  6.85023e+00  1.20602e+01  9.11946e+00
       H  5.38155e+00  2.54036e+01  1.69019e+01
       H  1.48016e+00  1.46200e+01  8.21424e+00
       H  2.64272e+00  1.40971e+00  3.30290e-01
       N  5.13493e+00  8.51674e+00  8.65129e+00
       N  6.98616e+00  2.18873e+01  1.72931e+01
       N  2.89505e+00  1.84183e+01  8.70796e+00
       N  1.34424e+00  5.20781e+00  1.28668e-01
       N  3.86910e+00  6.94237e+00  1.00583e+01
       N  8.21802e+00  2.03739e+01  1.59199e+01
       N  4.08727e+00  2.00520e+01  7.26368e+00
       N  7.05941e-02  6.73563e+00  1.56944e+00
       C  2.52993e+00  7.26607e+00  1.46693e+01
       C  9.24759e+00  2.05289e+01  1.12085e+01
       C  5.80215e+00  1.98234e+01  2.88479e+00
       C -1.79112e+00  6.26305e+00  5.94424e+00
       H  1.76151e+00  5.41727e+00  1.49322e+01
       H  1.01158e+01  1.86188e+01  1.09456e+01
       H  6.64435e+00  2.16894e+01  2.57443e+00
       H  1.09610e+01  8.22108e+00  6.19390e+00
       N  2.82004e+00  8.76371e+00  1.67226e+01
       N  9.07508e+00  2.21181e+01  9.25123e+00
       N  5.66505e+00  1.83382e+01  8.04952e-01
       N -1.85734e+00  4.55064e+00  7.76263e+00
       H  7.68428e+00  7.83544e+00  1.11094e+00
       H  9.92540e+00  2.13734e+01  7.63509e+00
       H  8.90595e-01  1.91614e+01  1.63680e+01
       H -2.76847e+00  5.22456e+00  9.41033e+00
       C  3.81608e+00  1.12045e+01  1.66895e+01
       C  8.26365e+00  2.46342e+01  9.40024e+00
       C  4.55185e+00  1.60732e+01  6.43134e-01
       C -7.09024e-01  2.17203e+00  7.78626e+00
       H  9.40149e+00  1.21954e+01  1.20304e+00
       H  8.36899e+00  2.56553e+01  7.64555e+00
       H -8.02640e-01  1.54531e+01  1.60246e+01
       H -9.26001e-01  1.09813e+00  9.53900e+00
       C  4.75837e+00  1.21630e+01  1.44575e+01
       C  7.25935e+00  2.55906e+01  1.15952e+01
       C  3.30400e+00  1.49951e+01  2.70506e+00
       C  5.83006e-01  1.26969e+00  5.65481e+00
       C  5.79191e+00  1.47928e+01  1.42415e+01
       C  6.10583e+00  1.09018e+00  1.17427e+01
       C  2.06869e+00  1.25607e+01  2.48517e+00
       C  2.13326e+00  2.60269e+01  5.80796e+00
       H  5.18585e+00  1.62454e+01  1.55808e+01
       H  6.44556e+00  2.30940e+00  1.00762e+01
       H  1.75654e+00  1.22103e+01  5.16877e-01
       H  2.02045e+00  2.49873e+01  7.56157e+00
       H  4.96755e+00  1.55213e+01  1.23700e+01
       H  6.72250e+00  2.09964e+00  1.34521e+01
       H  3.37867e+00  1.10444e+01  3.07875e+00
       H  1.49541e+00  2.46977e+01  4.33507e+00
       H  7.88184e+00  1.49428e+01  1.41116e+01
       H  4.06318e+00  8.48566e-01  1.20856e+01
       H  3.81572e-01  1.25228e+01  3.78888e+00
       H  4.10565e+00  2.63429e+01  5.21934e+00
       C  3.64018e+00  8.02991e+00  1.24013e+01
       C  8.36477e+00  2.14377e+01  1.35021e+01
       C  4.62817e+00  1.89057e+01  5.05333e+00
       C -4.02810e-01  5.49820e+00  3.86627e+00
       C  4.75408e+00  1.04414e+01  1.23314e+01
       C  7.38747e+00  2.39368e+01  1.36474e+01
       C  3.47784e+00  1.64705e+01  4.98384e+00
       C  7.01848e-01  3.08759e+00  3.66255e+00
       O  5.80132e+00  6.94235e+00  3.48335e+00
       O  1.07564e+01  2.03505e+01  5.04574e+00
       O  2.21166e+00  2.03957e+01  1.39028e+01
       O -3.74567e+00  6.82416e+00  1.20652e+01
       H  5.87177e+00  7.94771e+00  5.04760e+00
       H  1.13206e+01  2.08212e+01  3.34684e+00
       H  1.68472e+00  1.96031e+01  1.22603e+01
       H -3.42657e+00  5.78163e+00  1.36254e+01
       H  6.29057e+00  5.12799e+00  3.89555e+00
       H  1.06139e+01  1.84614e+01  4.89871e+00
       H  1.72141e+00  2.21838e+01  1.38067e+01
       H -3.37357e+00  8.61958e+00  1.24570e+01
96
# CELL(abcABC):   13.49113    27.05389    18.12247    90.00000   107.33000    90.00000  Step:           5  Bead:       0 positions{atomic_unit}  cell{atomic_unit}
       N -7.00155e-01  1.31574e+01  1.16234e+01
       N -2.71417e-01  2.66276e+01  1.43140e+01
       N  9.04307e+00  1.39218e+01  5.66481e+00
       N  8.72935e+00  3.97476e-01  3.08381e+00
       O -2.10415e+00  1.18828e+01  1.30937e+01
       O  1.07679e+00  2.52939e+01  1.28390e+01
       O  1.05533e+01  1.51087e+01  4.13486e+00
       O  7.48718e+00  1.88976e+00  4.69149e+00
       O -3.03641e-01  1.54747e+01  1.20858e+01
       O -9.93866e-01  1.77489e+00  1.35716e+01
       O  8.57754e+00  1.15608e+01  5.20715e+00
       O  9.20506e+00  2.51897e+01  3.67754e+00
       O  8.09646e-02  1.22829e+01  9.47728e+00
       O -9.67325e-01  2.58058e+01  1.65066e+01
       O  8.06348e+00  1.50760e+01  7.53815e+00
       O  9.24698e+00  1.27195e+00  9.29331e-01
       N  5.64508e+00  1.07052e+01  9.89749e+00
       N  6.61343e+00  2.40877e+01  1.60731e+01
       N  2.44276e+00  1.62105e+01  7.42205e+00
       N  1.80793e+00  2.98327e+00  1.30065e+00
       H  6.82950e+00  1.20545e+01  9.12368e+00
       H  5.38519e+00  2.54116e+01  1.69016e+01
       H  1.47937e+00  1.46544e+01  8.20690e+00
       H  2.65691e+00  1.41948e+00  3.34652e-01
       N  5.13560e+00  8.51659e+00  8.65013e+00
       N  6.98443e+00  2.18924e+01  1.72938e+01
       N  2.89575e+00  1.84190e+01  8.70200e+00
       N  1.34138e+00  5.20446e+00  1.26201e-01
       N  3.86469e+00  6.93960e+00  1.00588e+01
       N  8.22192e+00  2.03731e+01  1.59182e+01
       N  4.08134e+00  2.00539e+01  7.26400e+00
       N  7.08116e-02  6.73425e+00  1.56845e+00
       C  2.53337e+00  7.26359e+00  1.46717e+01
       C  9.25465e+00  2.05305e+01  1.12055e+01
       C  5.80105e+00  1.98209e+01  2.88586e+00
       C -1.79088e+00  6.26265e+00  5.94478e+00
       H  1.75886e+00  5.42525e+00  1.49412e+01
       H  1.01201e+01  1.86283e+01  1.09464e+01
       H  6.62400e+00  2.16838e+01  2.57405e+00
       H  1.09562e+01  8.20466e+00  6.17397e+00
       N  2.82435e+00  8.76305e+00  1.67236e+01
       N  9.07380e+00  2.21188e+01  9.25075e+00
       N  5.66517e+00  1.83412e+01  8.03134e-01
       N -1.86257e+00  4.54956e+00  7.76319e+00
       H  7.66761e+00  7.83243e+00  1.10803e+00
       H  9.91448e+00  2.13683e+01  7.63083e+00
       H  8.96382e-01  1.91783e+01  1.63516e+01
       H -2.76070e+00  5.21153e+00  9.41166e+00
       C  3.81485e+00  1.12036e+01  1.66948e+01
       C  8.26635e+00  2.46339e+01  9.40071e+00
       C  4.55336e+00  1.60735e+01  6.44724e-01
       C -7.12578e-01  2.17070e+00  7.78452e+00
       H  9.41073e+00  1.21901e+01  1.18863e+00
       H  8.34843e+00  2.56578e+01  7.64377e+00
       H -7.94718e-01  1.54457e+01  1.59974e+01
       H -9.40255e-01  1.09563e+00  9.53550e+00
       C  4.76553e+00  1.21656e+01  1.44570e+01
       C  7.26600e+00  2.55905e+01  1.15917e+01
       C  3.30903e+00  1.49952e+01  2.70592e+00
       C  5.80373e-01  1.27134e+00  5.65161e+00
       C  5.79143e+00  1.47904e+01  1.42438e+01
       C  6.10558e+00  1.08994e+00  1.17441e+01
       C  2.07406e+00  1.25559e+01  2.48904e+00
       C  2.13820e+00  2.60296e+01  5.80327e+00
       H  5.18124e+00  1.62389e+01  1.55833e+01
       H  6.44690e+00  2.31246e+00  1.00961e+01
       H  1.74502e+00  1.22081e+01  5.09226e-01
       H  2.01670e+00  2.49842e+01  7.56183e+00
       H  4.99195e+00  1.55192e+01  1.23851e+01
       H  6.72061e+00  2.12167e+00  1.34649e+01
       H  3.36820e+00  1.10628e+01  3.07414e+00
       H  1.47690e+00  2.46839e+01  4.32279e+00
       H  7.88106e+00  1.49270e+01  1.41088e+01
       H  4.08016e+00  8.51696e-01  1.20760e+01
       H  3.69739e-01  1.25307e+01  3.79826e+00
       H  4.08398e+00  2.63621e+01  5.23271e+00
       C  3.64214e+00  8.03214e+00  1.24000e+01
       C  8.36264e+00  2.14432e+01  1.35005e+01
       C  4.62470e+00  1.89022e+01  5.05665e+00
       C -3.99656e-01  5.49705e+00  3.86817e+00
       C  4.75449e+00  1.04433e+01  1.23315e+01
       C  7.38273e+00  2.39363e+01  1.36502e+01
       C  3.47736e+00  1.64728e+01  4.99013e+00
       C  7.04371e-01  3.08302e+00  3.66561e+00
       O  5.80032e+00  6.93869e+00  3.48328e+00
       O  1.07580e+01  2.03505e+01  5.04418e+00
       O  2.20969e+00  2.03950e+01  1.39001e+01
       O -3.75046e+00  6.82049e+00  1.20618e+01
       H  5.85407e+00  7.95492e+00  5.05436e+00
       H  1.13294e+01  2.08375e+01  3.36101e+00
       H  1.67621e+00  1.95829e+01  1.22265e+01
       H -3.42868e+00  5.78245e+00  1.36229e+01
       H  6.28618e+00  5.13584e+00  3.88557e+00
       H  1.06158e+01  1.84709e+01  4.88376e+00
       H  1.71417e+00  2.21887e+01  1.38299e+01
       H -3.37142e+00  8.60803e+00  1.24709e+01
96
# CELL(abcABC):   13.49113    27.05389    18.12247    90.00000   107.33000    90.00000  Step:           6  Bead:       0 positions{atomic_unit}  cell{atomic_unit}
       N -7.01945e-01  1.31642e+01  1.16176e+01
       N -2.70993e-01  2.66291e+01  1.43140e+01
       N  9.04465e+00  1.39220e+01  5.66575e+00
       N  8.72976e+00  3.97272e-01  3.08529e+00
       O -2.10616e+00  1.18827e+01  1.30947e+01
       O  1.07744e+00  2.52948e+01  1.28400e+01
       O  1.05567e+01  1.51063e+01  4.13399e+00
       O  7.48759e+00  1.89334e+00  4.68845e+00
       O -3.03563e-01  1.54727e+01  1.20912e+01
       O -9.95829e-01  1.77329e+00  1.35750e+01
       O  8.57590e+00  1.15612e+01  5.20825e+00
       O  9.20166e+00  2.51893e+01  3.68073e+00
       O  7.85682e-02  1.22850e+01  9.48000e+00
       O -9.68103e-01  2.58075e+01  1.65054e+01
       O  8.06930e+00  1.50754e+01  7.53877e+00
       O  9.24761e+00  1.27349e+00  9.32376e-01
       N  5.64497e+00  1.07059e+01  9.89701e+00
       N  6.61370e+00  2.40883e+01  1.60684e+01
       N  2.44551e+00  1.62085e+01  7.42271e+00
       N  1.80381e+00  2.98351e+00  1.29640e+00
       H  6.80901e+00  1.20482e+01  9.12106e+00
       H  5.38902e+00  2.54192e+01  1.69004e+01
       H  1.47512e+00  1.46891e+01  8.19781e+00
       H  2.67004e+00  1.42994e+00  3.41900e-01